VARIABLES=ALPHA,CN,CM,CA,CY,CLN,CLL,DELTA,CL,CD
ZONE T="NO TRIM MACH=  9.00"
    0.0000    0.0000    0.0000    0.0758   -0.0000    0.0000    0.0000    0.0000
    2.0000    0.0889   -0.2859    0.0757   -0.0000    0.0000    0.0000    0.0000
    4.0000    0.2320   -0.9119    0.0756   -0.0000    0.0000    0.0000    0.0000
    6.0000    0.4000   -1.6956    0.0753   -0.0000    0.0000    0.0000    0.0000
    8.0000    0.5858   -2.5954    0.0750   -0.0000    0.0000    0.0000    0.0000
   10.0000    0.8011   -3.6852    0.0746   -0.0000    0.0000    0.0000    0.0000
   12.0000    1.0621   -5.0672    0.0741   -0.0000    0.0000    0.0000    0.0000
   14.0000    1.3558   -6.6628    0.0734   -0.0000    0.0000    0.0000    0.0000
   16.0000    1.6795   -8.4553    0.0727   -0.0000    0.0000    0.0000    0.0000
   18.0000    2.0315  -10.4360    0.0720   -0.0000    0.0000    0.0000    0.0000
   20.0000    2.4101  -12.5950    0.0711   -0.0000    0.0000    0.0000    0.0000
ZONE T="NO TRIM MACH= 10.00"
    0.0000    0.0000    0.0000    0.0728   -0.0000    0.0000    0.0000    0.0000
    2.0000    0.0890   -0.2861    0.0728   -0.0000    0.0000    0.0000    0.0000
    4.0000    0.2322   -0.9122    0.0726   -0.0000    0.0000    0.0000    0.0000
    6.0000    0.3934   -1.6539    0.0724   -0.0000    0.0000    0.0000    0.0000
    8.0000    0.5781   -2.5463    0.0721   -0.0000    0.0000    0.0000    0.0000
   10.0000    0.8001   -3.6773    0.0717   -0.0000    0.0000    0.0000    0.0000
   12.0000    1.0625   -5.0682    0.0712   -0.0000    0.0000    0.0000    0.0000
   14.0000    1.3563   -6.6640    0.0707   -0.0000    0.0000    0.0000    0.0000
   16.0000    1.6801   -8.4567    0.0700   -0.0000    0.0000    0.0000    0.0000
   18.0000    2.0322  -10.4375    0.0693   -0.0000    0.0000    0.0000    0.0000
   20.0000    2.4108  -12.5966    0.0685   -0.0000    0.0000    0.0000    0.0000
ZONE T="NO TRIM MACH= 11.00"
    0.0000    0.0000    0.0000    0.0699   -0.0000    0.0000    0.0000    0.0000
    2.0000    0.0890   -0.2862    0.0699   -0.0000    0.0000    0.0000    0.0000
    4.0000    0.2323   -0.9125    0.0698   -0.0000    0.0000    0.0000    0.0000
    6.0000    0.3886   -1.6230    0.0696   -0.0000    0.0000    0.0000    0.0000
    8.0000    0.5723   -2.5091    0.0693   -0.0000    0.0000    0.0000    0.0000
   10.0000    0.8003   -3.6779    0.0689   -0.0000    0.0000    0.0000    0.0000
   12.0000    1.0628   -5.0690    0.0685   -0.0000    0.0000    0.0000    0.0000
   14.0000    1.3567   -6.6649    0.0679   -0.0000    0.0000    0.0000    0.0000
   16.0000    1.6805   -8.4577    0.0673   -0.0000    0.0000    0.0000    0.0000
   18.0000    2.0326  -10.4386    0.0667   -0.0000    0.0000    0.0000    0.0000
   20.0000    2.4113  -12.5979    0.0659   -0.0000    0.0000    0.0000    0.0000
ZONE T="NO TRIM MACH= 12.00"
    0.0000    0.0000    0.0000    0.0666   -0.0000    0.0000    0.0000    0.0000
    2.0000    0.0903   -0.2943    0.0665   -0.0000    0.0000    0.0000    0.0000
    4.0000    0.2303   -0.8999    0.0664   -0.0000    0.0000    0.0000    0.0000
    6.0000    0.3837   -1.5919    0.0662   -0.0000    0.0000    0.0000    0.0000
    8.0000    0.5708   -2.4990    0.0660   -0.0000    0.0000    0.0000    0.0000
   10.0000    0.8006   -3.6784    0.0656   -0.0000    0.0000    0.0000    0.0000
   12.0000    1.0631   -5.0696    0.0652   -0.0000    0.0000    0.0000    0.0000
   14.0000    1.3570   -6.6656    0.0648   -0.0000    0.0000    0.0000    0.0000
   16.0000    1.6808   -8.4585    0.0642   -0.0000    0.0000    0.0000    0.0000
   18.0000    2.0330  -10.4395    0.0636   -0.0000    0.0000    0.0000    0.0000
   20.0000    2.4117  -12.5988    0.0629   -0.0000    0.0000    0.0000    0.0000
ZONE T="NO TRIM MACH= 13.00"
    0.0000    0.0000    0.0000    0.0592   -0.0000    0.0000    0.0000    0.0000
    2.0000    0.0907   -0.2967    0.0592   -0.0000    0.0000    0.0000    0.0000
    4.0000    0.2267   -0.8768    0.0591   -0.0000    0.0000    0.0000    0.0000
    6.0000    0.3803   -1.5702    0.0590   -0.0000    0.0000    0.0000    0.0000
    8.0000    0.5709   -2.4993    0.0588   -0.0000    0.0000    0.0000    0.0000
   10.0000    0.8007   -3.6788    0.0585   -0.0000    0.0000    0.0000    0.0000
   12.0000    1.0633   -5.0700    0.0582   -0.0000    0.0000    0.0000    0.0000
   14.0000    1.3572   -6.6661    0.0579   -0.0000    0.0000    0.0000    0.0000
   16.0000    1.6811   -8.4591    0.0575   -0.0000    0.0000    0.0000    0.0000
   18.0000    2.0333  -10.4401    0.0570   -0.0000    0.0000    0.0000    0.0000
   20.0000    2.4120  -12.5995    0.0565   -0.0000    0.0000    0.0000    0.0000
ZONE T="NO TRIM MACH= 14.00"
    0.0000    0.0000    0.0000    0.0587   -0.0000    0.0000    0.0000    0.0000
    2.0000    0.0911   -0.2992    0.0586   -0.0000    0.0000    0.0000    0.0000
    4.0000    0.2241   -0.8609    0.0586   -0.0000    0.0000    0.0000    0.0000
    6.0000    0.3775   -1.5524    0.0584   -0.0000    0.0000    0.0000    0.0000
    8.0000    0.5710   -2.4995    0.0582   -0.0000    0.0000    0.0000    0.0000
   10.0000    0.8008   -3.6791    0.0580   -0.0000    0.0000    0.0000    0.0000
   12.0000    1.0634   -5.0704    0.0577   -0.0000    0.0000    0.0000    0.0000
   14.0000    1.3574   -6.6665    0.0573   -0.0000    0.0000    0.0000    0.0000
   16.0000    1.6813   -8.4595    0.0569   -0.0000    0.0000    0.0000    0.0000
   18.0000    2.0335  -10.4406    0.0565   -0.0000    0.0000    0.0000    0.0000
   20.0000    2.4122  -12.6001    0.0560   -0.0000    0.0000    0.0000    0.0000
ZONE T="NO TRIM MACH= 15.00"
    0.0000    0.0000    0.0000    0.0618   -0.0000    0.0000    0.0000    0.0000
    2.0000    0.0918   -0.3031    0.0618   -0.0000    0.0000    0.0000    0.0000
    4.0000    0.2225   -0.8502    0.0617   -0.0000    0.0000    0.0000    0.0000
    6.0000    0.3756   -1.5404    0.0615   -0.0000    0.0000    0.0000    0.0000
    8.0000    0.5711   -2.4997    0.0613   -0.0000    0.0000    0.0000    0.0000
   10.0000    0.8009   -3.6794    0.0610   -0.0000    0.0000    0.0000    0.0000
   12.0000    1.0635   -5.0707    0.0607   -0.0000    0.0000    0.0000    0.0000
   14.0000    1.3575   -6.6669    0.0603   -0.0000    0.0000    0.0000    0.0000
   16.0000    1.6814   -8.4599    0.0598   -0.0000    0.0000    0.0000    0.0000
   18.0000    2.0336  -10.4411    0.0593   -0.0000    0.0000    0.0000    0.0000
   20.0000    2.4124  -12.6005    0.0587   -0.0000    0.0000    0.0000    0.0000
ZONE T="NO TRIM MACH= 16.00"
    0.0000    0.0000    0.0000    0.0647   -0.0000    0.0000    0.0000    0.0000
    2.0000    0.0926   -0.3079    0.0646   -0.0000    0.0000    0.0000    0.0000
    4.0000    0.2211   -0.8417    0.0645   -0.0000    0.0000    0.0000    0.0000
    6.0000    0.3752   -1.5378    0.0644   -0.0000    0.0000    0.0000    0.0000
    8.0000    0.5711   -2.4999    0.0641   -0.0000    0.0000    0.0000    0.0000
   10.0000    0.8010   -3.6796    0.0638   -0.0000    0.0000    0.0000    0.0000
   12.0000    1.0636   -5.0709    0.0634   -0.0000    0.0000    0.0000    0.0000
   14.0000    1.3576   -6.6671    0.0630   -0.0000    0.0000    0.0000    0.0000
   16.0000    1.6816   -8.4602    0.0625   -0.0000    0.0000    0.0000    0.0000
   18.0000    2.0338  -10.4414    0.0619   -0.0000    0.0000    0.0000    0.0000
   20.0000    2.4125  -12.6009    0.0613   -0.0000    0.0000    0.0000    0.0000
ZONE T="NO TRIM MACH= 17.00"
    0.0000    0.0000    0.0000    0.0681   -0.0000    0.0000    0.0000    0.0000
    2.0000    0.0933   -0.3126    0.0681   -0.0000    0.0000    0.0000    0.0000
    4.0000    0.2194   -0.8311    0.0679   -0.0000    0.0000    0.0000    0.0000
    6.0000    0.3752   -1.5379    0.0678   -0.0000    0.0000    0.0000    0.0000
    8.0000    0.5712   -2.5000    0.0675   -0.0000    0.0000    0.0000    0.0000
   10.0000    0.8011   -3.6797    0.0671   -0.0000    0.0000    0.0000    0.0000
   12.0000    1.0637   -5.0711    0.0667   -0.0000    0.0000    0.0000    0.0000
   14.0000    1.3577   -6.6674    0.0662   -0.0000    0.0000    0.0000    0.0000
   16.0000    1.6817   -8.4605    0.0657   -0.0000    0.0000    0.0000    0.0000
   18.0000    2.0339  -10.4417    0.0650   -0.0000    0.0000    0.0000    0.0000
   20.0000    2.4127  -12.6012    0.0643   -0.0000    0.0000    0.0000    0.0000
